Host: irene4125  NProc: 1600  Dir: /ccc/work/cont002/gen6821/marinica/targetH2O/liquidW
lammps + mpi4py import OK
        
                ┳┳┓  ┓ 
            ┏┓┓┏┃┃┃┏┓┣┓
            ┣┛┗┫┛ ┗┗┻┗┛
            ┛  ┛                                                               
        
        copyleft CEA by ...                                        
        ... C. Lapointe, A. Zhong, M. Athenes, T.D.S Swinburne,, M.-C. Marinica     
        other contributions                                        
        L. Cao, G. Stoltz, T. Lelievre                             
        email:mihai-cosmin.marinica@cea.fr, clovis.lapointe@cea.fr
        

        Working Directory:
            ./mab_work
        Configuration:
            ../../inputs/out_W_liquid_444.lmp
        
        
        Scripts:
        
                Inputs: 
                    units metal
atom_style atomic
atom_modify map array sort 0 0.0
read_data  %Configuration%
pair_style    snap
pair_coeff * * %Potential%  ../../inputs/D.snapparam  %Species%
group      %Species% type 1
mass       1   183.85
run 0
thermo 10
run 0
        
        Parameters:
        
                    CoresPerWorker: 4
                    GlobalSeed: 14237519
                    Verbose: False
                    LogLammps: False
                    Temperature: 5000.0
                    LambdaGrid:
                                Min = 0.0
                                Max = 1.0
                                Number = 1000
                                Rbuffer = 0.0
                                NumberBuffer = 0
                    ThermalisationStep: 0
                    StochasticSteps: 100000
                    WritingStep: 500
                    GatherStep: 200
                    WorkingDirectory: ./mab_work
                    Configuration: ../../inputs/out_W_liquid_444.lmp
                    Species: W
                    Dynamic: OverdampedLangevin
                    DeltaT: 0.001
                    Friction: 100.0
                    Minimization: False
                    min_forces: 0.01
                    min_style: cg
                    min_maxiter: 10000
                    min_maxeval: 100000
                    min_save_config: True
                    min_format: extxyz
                    min_savepath: minimized
                    WeightsTrajectory: linear
                    TI_formalism: lambda_linear
                    Estimator: BABF
                    ABF:
                                ShareBias = True
                                DeltaTLambda = 0.0
                                FrictionLambda = 0.0
                                MinCountBias = 1
                    ReferenceModel:
                                model = sUF
                                omega = 1.0
                                get_hessian = compute
                                step_displacement = 0.01
                                hessian_order = 2
                                HessianPath = hessian.h5
                                nstep_for_scale = 10000
                                scale_mu = 0.001
                                scale_kappa_min = 0.01
                                RescaledHessianPath = hessian_rescaled.h5
                                WeightsInReference = False
                                alpha_rescale = 0.5
                                scale_mu_k = 0.01
                                scale_mu_gamma = 0.01
                                harmonic_groups = 8
                                uf_p = 100
                                uf_x = 0.7
                                uf_sigma = 0.0
                                uf_rcut = 0.0
                                uf_rcut_in_sigma = 3.5
                                uf_spline_path = 
                                uf_neighbor = kdtree
                                uf_skin = 0.5
                                uf_prepared_liquid = False
                                uf_premelt_overheat = 2.0
                                uf_premelt_T_melt = 0.0
                                uf_premelt_steps_melt = 10000
                                uf_premelt_steps_quench = 10000
                                uf_premelt_steps_equil = 20000
                                uf_premelt_damp = 0.1
                                uf_premelt_dump = toto.dump
                    ConstrainedPotential:
                                model = Standard
                                C = 1.0
                                delta = 1.0
                                Rc = 0.0
                    Block: False
                    Restart:
                                Activate = False
                                PathH5 = Not set
                    KLModify: False
                    Jarzynski: False
0:00:05.312 | PYMAB | [sUF] pre-melt (walker 0, 4 ranks) -> broadcast q^0 to all walkers: T_melt=10000.0 K (overheat x 2.00) -> T_target=5000.0 K, steps melt/quench/equil = 10000/10000/20000, damp=0.100 ps
0:00:05.313 | PYMAB | [sUF] pre-melt: dumping shared equilibrated liquid to toto.dump
0:05:42.015 | PYMAB | [sUF] no spline JSON at /ccc/work/cont002/gen6821/marinica/Flow/Src/pyMAB.git/mab/reference/data/uf/uf_p100.json; F_ref will skip f_exc^(p).
0:05:42.029 | PYMAB | [sUF] reference set: p=100, x=0.7000, sigma=1.6248 A, rcut=5.6867 A, rho=5.8618e-02 A^-3, N=128, V=2.1836e+03 A^3, T=5000.00 K
0:05:42.030 | PYMAB | [sUF] f_exc spline: /ccc/work/cont002/gen6821/marinica/Flow/Src/pyMAB.git/mab/reference/data/uf/uf_p100.json (missing - F_exc skipped)
0:05:42.073 | PYMAB | 
        Initialized 400 workers with 4 cores
        < > == time averages,  av/err over ensemble
        
0:05:42.073 | PYMAB | ... Starting thermalisation procedure ... (0.0e+00 steps)
0:05:42.136 | PYMAB | ... Finishing thermalisation procedure ...
0:05:42.136 | PYMAB | 
0:05:42.136 | PYMAB |                Langevin step              Temperature [K]         <d_lambda F(1)> [eV]                    A(1) [eV] < A(1) - < A(1) > >^2 [eV^2] 
0:06:01.551 | PYMAB |                          500                       5000.0                   -1.7700166                    2.4009261                        4e-07 
0:06:21.354 | PYMAB |                         1000                       5000.0                   -3.9683507                    3.7677969                        4e-07 
0:06:40.398 | PYMAB |                         1500                       5000.0                   -4.7175936                    5.3592787                        5e-07 
0:06:59.781 | PYMAB |                         2000                       5000.0                    -5.966044                    6.1599841                        6e-07 
0:07:18.978 | PYMAB |                         2500                       5000.0                   -6.1423733                     7.179522                        6e-07 
0:07:38.467 | PYMAB |                         3000                       5000.0                   -6.4126282                    7.7757463                        6e-07 
0:07:57.199 | PYMAB |                         3500                       5000.0                   -6.8953987                    8.5260102                        7e-07 
0:08:16.436 | PYMAB |                         4000                       5000.0                   -6.8394827                    8.9910251                        7e-07 
0:08:35.121 | PYMAB |                         4500                       5000.0                   -6.7929703                    9.6215106                        7e-07 
0:08:54.900 | PYMAB |                         5000                       5000.0                   -6.7844427                    9.9860522                        7e-07 
0:09:13.425 | PYMAB |                         5500                       5000.0                   -7.2105331                   10.4511332                        8e-07 
0:09:33.394 | PYMAB |                         6000                       5000.0                   -7.9548532                   10.7278146                        9e-07 
0:09:52.303 | PYMAB |                         6500                       5000.0                   -8.0774781                   11.1274744                        1e-06 
0:10:12.011 | PYMAB |                         7000                       5000.0                   -8.4607367                   11.3748608                        1e-06 
0:10:30.984 | PYMAB |                         7500                       5000.0                   -8.4138884                   11.7967849                        1e-06 
0:10:51.012 | PYMAB |                         8000                       5000.0                   -8.3485245                   12.0947624                        1e-06 
0:11:09.878 | PYMAB |                         8500                       5000.0                   -8.3372088                   12.5643525                        1e-06 
0:11:29.833 | PYMAB |                         9000                       5000.0                   -8.3369967                   12.9305242                        1e-06 
0:11:49.093 | PYMAB |                         9500                       5000.0                   -8.3369844                   13.5058358                      1.1e-06 
0:12:08.315 | PYMAB |                        10000                       5000.0                   -8.3369789                   13.8977228                      1.2e-06 
0:12:27.233 | PYMAB |                        10500                       5000.0                   -8.3369789                   14.5313547                      1.3e-06 
0:12:46.351 | PYMAB |                        11000                       5000.0                   -8.3369789                   14.9733851                      1.5e-06 
0:13:05.239 | PYMAB |                        11500                       5000.0                   -8.3369789                   15.6164006                      1.6e-06 
0:13:24.606 | PYMAB |                        12000                       5000.0                   -8.3369789                    16.069463                      1.7e-06 
0:13:43.369 | PYMAB |                        12500                       5000.0                   -8.3369789                   16.7555194                      1.8e-06 
0:14:03.168 | PYMAB |                        13000                       5000.0                   -8.3369789                   17.2110548                      1.9e-06 
0:14:22.029 | PYMAB |                        13500                       5000.0                   -8.3369789                   17.9288339                      1.9e-06 
0:14:41.620 | PYMAB |                        14000                       5000.0                   -8.3369789                   18.4291368                      1.9e-06 
0:15:00.357 | PYMAB |                        14500                       5000.0                   -8.3369789                   19.2972514                      1.9e-06 
0:15:19.778 | PYMAB |                        15000                       5000.0                   -8.3369789                   19.9260269                      2.1e-06 
0:15:38.812 | PYMAB |                        15500                       5000.0                   -8.3369789                   20.9574166                      2.3e-06 
0:15:58.068 | PYMAB |                        16000                       5000.0                   -8.3369789                   21.6714569                      2.4e-06 
0:16:16.661 | PYMAB |                        16500                       5000.0                   -8.3369789                   22.7334883                      2.7e-06 
0:16:36.103 | PYMAB |                        17000                       5000.0                   -8.3369789                   23.4551535                      2.8e-06 
0:16:54.633 | PYMAB |                        17500                       5000.0                   -8.3369789                   24.4841623                      2.6e-06 
0:17:14.254 | PYMAB |                        18000                       5000.0                   -8.3369789                   25.1702324                      2.5e-06 
0:17:32.962 | PYMAB |                        18500                       5000.0                   -8.3369789                   26.2510625                      2.7e-06 
0:17:52.348 | PYMAB |                        19000                       5000.0                   -8.3369789                   26.9756003                      3.1e-06 
0:18:11.261 | PYMAB |                        19500                       5000.0                   -8.3369789                   28.1841164                      3.8e-06 
0:18:31.126 | PYMAB |                        20000                       5000.0                   -8.3369788                    29.020168                      4.9e-06 
0:18:49.852 | PYMAB |                        20500                       5000.0                   -8.3369784                   30.1018214                      4.8e-06 
0:19:09.468 | PYMAB |                        21000                       5000.0                   -8.3369753                   30.7700397                      4.6e-06 
0:19:28.061 | PYMAB |                        21500                       5000.0                    -8.336973                   31.6683327                      4.3e-06 
0:19:48.094 | PYMAB |                        22000                       5000.0                   -8.3369663                   32.2323544                      3.8e-06 
0:20:06.902 | PYMAB |                        22500                       5000.0                    -8.336949                    33.139798                      3.7e-06 
0:20:26.677 | PYMAB |                        23000                       5000.0                   -8.3367815                   33.7756223                      3.5e-06 
0:20:45.191 | PYMAB |                        23500                       5000.0                    -8.336664                   34.6097025                      2.9e-06 
0:21:04.742 | PYMAB |                        24000                       5000.0                   -8.3350695                   35.1382212                      2.8e-06 
0:21:23.248 | PYMAB |                        24500                       5000.0                   -8.3225629                    35.973335                        3e-06 
0:21:42.665 | PYMAB |                        25000                       5000.0                    -8.246355                   36.4697773                      2.7e-06 
0:22:01.170 | PYMAB |                        25500                       5000.0                   -8.0604315                   37.1906298                      2.5e-06 
0:22:20.811 | PYMAB |                        26000                       5000.0                   -6.8742343                   37.6391273                      2.3e-06 
0:22:39.606 | PYMAB |                        26500                       5000.0                   -4.5498053                   38.2071363                      2.1e-06 
0:22:59.137 | PYMAB |                        27000                       5000.0                    0.6774015                   38.5113191                      1.5e-06 
0:23:17.928 | PYMAB |                        27500                       5000.0                    3.9603321                   38.8469107                      1.1e-06 
0:23:37.437 | PYMAB |                        28000                       5000.0                    7.5515578                   39.0095404                        7e-07 
0:23:56.006 | PYMAB |                        28500                       5000.0                    8.5663194                   39.1576629                        5e-07 
0:24:15.569 | PYMAB |                        29000                       5000.0                    8.2595526                   39.2003266                        5e-07 
0:24:33.942 | PYMAB |                        29500                       5000.0                    8.0990257                   39.2458017                        4e-07 
0:24:53.430 | PYMAB |                        30000                       5000.0                    7.7638819                   39.2746962                        4e-07 
0:25:12.227 | PYMAB |                        30500                       5000.0                    7.7283186                   39.3233729                        3e-07 
0:25:31.761 | PYMAB |                        31000                       5000.0                    7.8658361                   39.3607332                        3e-07 
0:25:50.559 | PYMAB |                        31500                       5000.0                    7.9269016                   39.4237955                        2e-07 
0:26:09.987 | PYMAB |                        32000                       5000.0                    8.0704976                   39.4723642                        2e-07 
0:26:28.705 | PYMAB |                        32500                       5000.0                     7.980491                   39.5262932                        2e-07 
0:26:48.253 | PYMAB |                        33000                       5000.0                    7.8113737                   39.5547158                        2e-07 
0:27:07.090 | PYMAB |                        33500                       5000.0                    7.8339065                   39.5998254                        2e-07 
0:27:27.049 | PYMAB |                        34000                       5000.0                    7.6720791                   39.6288857                        2e-07 
0:27:45.622 | PYMAB |                        34500                       5000.0                    7.4721905                   39.6698419                        1e-07 
0:28:05.399 | PYMAB |                        35000                       5000.0                    7.1504665                   39.6960828                        1e-07 
0:28:24.080 | PYMAB |                        35500                       5000.0                    6.8625763                   39.7310482                        1e-07 
0:28:43.620 | PYMAB |                        36000                       5000.0                    6.1843042                    39.751128                        1e-07 
0:29:02.457 | PYMAB |                        36500                       5000.0                    5.8427217                   39.7800424                        1e-07 
0:29:22.002 | PYMAB |                        37000                       5000.0                    5.6922047                   39.8025667                        1e-07 
0:29:40.681 | PYMAB |                        37500                       5000.0                    5.3862087                    39.825644                        1e-07 
0:30:00.485 | PYMAB |                        38000                       5000.0                    5.1526087                   39.8401353                        1e-07 
0:30:19.372 | PYMAB |                        38500                       5000.0                    5.0090268                   39.8607485                        1e-07 
0:30:39.400 | PYMAB |                        39000                       5000.0                    4.9114851                   39.8743207                        1e-07 
0:30:58.075 | PYMAB |                        39500                       5000.0                    4.8417511                   39.8949317                        1e-07 
0:31:17.829 | PYMAB |                        40000                       5000.0                    4.6761572                   39.9086851                        1e-07 
0:31:36.465 | PYMAB |                        40500                       5000.0                    4.6576402                   39.9323929                        1e-07 
0:31:56.197 | PYMAB |                        41000                       5000.0                    4.5316953                   39.9471472                        1e-07 
0:32:14.929 | PYMAB |                        41500                       5000.0                    4.4470802                   39.9674758                        1e-07 
0:32:34.546 | PYMAB |                        42000                       5000.0                     4.388271                   39.9811669                        1e-07 
0:32:53.006 | PYMAB |                        42500                       5000.0                    4.3562926                   40.0013287                        1e-07 
0:33:13.045 | PYMAB |                        43000                       5000.0                    4.2983545                   40.0124629                        1e-07 
0:33:31.480 | PYMAB |                        43500                       5000.0                     4.265918                   40.0311675                        1e-07 
0:33:51.173 | PYMAB |                        44000                       5000.0                    4.2743043                   40.0424643                        1e-07 
0:34:09.866 | PYMAB |                        44500                       5000.0                    4.3272809                   40.0573204                        1e-07 
0:34:29.693 | PYMAB |                        45000                       5000.0                    4.4200193                   40.0665247                        1e-07 
0:34:48.336 | PYMAB |                        45500                       5000.0                    4.4298184                   40.0770296                        1e-07 
0:35:08.090 | PYMAB |                        46000                       5000.0                    4.4072019                    40.084206                        1e-07 
0:35:27.011 | PYMAB |                        46500                       5000.0                    4.3697084                   40.0955713                        1e-07 
0:35:46.777 | PYMAB |                        47000                       5000.0                    4.3767892                   40.1033471                        1e-07 
0:36:05.635 | PYMAB |                        47500                       5000.0                    4.3632968                   40.1147853                        1e-07 
0:36:25.037 | PYMAB |                        48000                       5000.0                    4.3111114                   40.1214758                          0.0 
0:36:43.799 | PYMAB |                        48500                       5000.0                    4.2319529                   40.1291238                          0.0 
0:37:03.683 | PYMAB |                        49000                       5000.0                    4.0824222                   40.1338439                          0.0 
0:37:22.567 | PYMAB |                        49500                       5000.0                    3.9618472                   40.1386858                          0.0 
0:37:42.313 | PYMAB |                        50000                       5000.0                    3.7383461                    40.141569                          0.0 
0:38:00.890 | PYMAB |                        50500                       5000.0                    3.6294954                   40.1481606                          0.0 
0:38:20.890 | PYMAB |                        51000                       5000.0                    3.5004473                   40.1540139                          0.0 
0:38:39.936 | PYMAB |                        51500                       5000.0                    3.3849374                   40.1620535                          0.0 
0:38:59.846 | PYMAB |                        52000                       5000.0                     3.224455                   40.1665346                          0.0 
0:39:18.963 | PYMAB |                        52500                       5000.0                     3.128151                   40.1732233                          0.0 
0:39:38.782 | PYMAB |                        53000                       5000.0                    3.0221714                    40.178132                          0.0 
0:39:57.129 | PYMAB |                        53500                       5000.0                    2.9804447                   40.1867336                          0.0 
0:40:17.028 | PYMAB |                        54000                       5000.0                    2.8724239                   40.1921577                          0.0 
0:40:36.165 | PYMAB |                        54500                       5000.0                    2.7615949                   40.1973489                          0.0 
0:40:56.154 | PYMAB |                        55000                       5000.0                    2.5565817                   40.2001786                          0.0 
0:41:14.846 | PYMAB |                        55500                       5000.0                    2.4436424                   40.2055085                          0.0 
0:41:34.775 | PYMAB |                        56000                       5000.0                     2.377012                   40.2103032                          0.0 
0:41:53.723 | PYMAB |                        56500                       5000.0                    2.3273102                   40.2151994                          0.0 
0:42:13.436 | PYMAB |                        57000                       5000.0                    2.2534321                   40.2181242                          0.0 
0:42:32.295 | PYMAB |                        57500                       5000.0                    2.1868668                   40.2217342                          0.0 
0:42:51.537 | PYMAB |                        58000                       5000.0                    2.0983318                   40.2240732                          0.0 
0:43:10.043 | PYMAB |                        58500                       5000.0                    2.0280866                   40.2283507                          0.0 
0:43:29.484 | PYMAB |                        59000                       5000.0                    1.9097289                   40.2310642                          0.0 
0:43:47.919 | PYMAB |                        59500                       5000.0                    1.8190424                   40.2361126                          0.0 
0:44:07.442 | PYMAB |                        60000                       5000.0                     1.678212                   40.2405126                          0.0 
0:44:25.731 | PYMAB |                        60500                       5000.0                    1.5693861                   40.2472055                          0.0 
0:44:45.539 | PYMAB |                        61000                       5000.0                    1.4135324                    40.250922                          0.0 
0:45:04.287 | PYMAB |                        61500                       5000.0                    1.3320057                   40.2565546                          0.0 
0:45:24.037 | PYMAB |                        62000                       5000.0                     1.212825                    40.260375                          0.0 
0:45:42.695 | PYMAB |                        62500                       5000.0                    1.1195495                   40.2656784                          0.0 
0:46:02.525 | PYMAB |                        63000                       5000.0                    0.9832958                   40.2686778                          0.0 
0:46:21.418 | PYMAB |                        63500                       5000.0                     0.886112                   40.2730161                          0.0 
0:46:41.030 | PYMAB |                        64000                       5000.0                    0.7465584                   40.2758866                          0.0 
0:46:59.786 | PYMAB |                        64500                       5000.0                    0.6502034                    40.279729                          0.0 
0:47:19.547 | PYMAB |                        65000                       5000.0                    0.5649071                   40.2832065                          0.0 
0:47:38.482 | PYMAB |                        65500                       5000.0                    0.5381012                   40.2889815                          0.0 
0:47:58.221 | PYMAB |                        66000                       5000.0                    0.5069514                   40.2929378                          0.0 
0:48:17.255 | PYMAB |                        66500                       5000.0                    0.4870554                    40.299321                          0.0 
0:48:37.144 | PYMAB |                        67000                       5000.0                    0.4049372                   40.3027981                          0.0 
0:48:55.515 | PYMAB |                        67500                       5000.0                    0.3674119                   40.3073241                          0.0 
0:49:15.551 | PYMAB |                        68000                       5000.0                     0.287381                   40.3100225                          0.0 
0:49:34.365 | PYMAB |                        68500                       5000.0                    0.2177878                   40.3138275                          0.0 
0:49:54.261 | PYMAB |                        69000                       5000.0                    0.1294041                   40.3162936                          0.0 
0:50:13.301 | PYMAB |                        69500                       5000.0                    0.0645039                   40.3200007                          0.0 
0:50:33.033 | PYMAB |                        70000                       5000.0                    -0.012679                   40.3222914                          0.0 
0:50:51.467 | PYMAB |                        70500                       5000.0                   -0.0322682                   40.3264837                          0.0 
0:51:11.453 | PYMAB |                        71000                       5000.0                   -0.0544617                   40.3300597                          0.0 
0:51:30.248 | PYMAB |                        71500                       5000.0                   -0.0927804                   40.3353978                          0.0 
0:51:49.754 | PYMAB |                        72000                       5000.0                   -0.1526831                   40.3385242                          0.0 
0:52:08.940 | PYMAB |                        72500                       5000.0                   -0.1879617                   40.3429984                          0.0 
0:52:28.842 | PYMAB |                        73000                       5000.0                   -0.2280517                   40.3460117                          0.0 
0:52:47.594 | PYMAB |                        73500                       5000.0                   -0.2421818                   40.3507688                          0.0 
0:53:07.134 | PYMAB |                        74000                       5000.0                   -0.2700286                   40.3538902                          0.0 
0:53:25.848 | PYMAB |                        74500                       5000.0                   -0.3015914                   40.3585485                          0.0 
0:53:45.642 | PYMAB |                        75000                       5000.0                   -0.3837647                   40.3613449                          0.0 
0:54:04.019 | PYMAB |                        75500                       5000.0                   -0.4486749                   40.3649669                          0.0 
0:54:23.531 | PYMAB |                        76000                       5000.0                    -0.500292                   40.3675586                          0.0 
0:54:41.953 | PYMAB |                        76500                       5000.0                   -0.5312266                   40.3718326                          0.0 
0:55:01.559 | PYMAB |                        77000                       5000.0                   -0.5889638                   40.3747183                          0.0 
0:55:20.414 | PYMAB |                        77500                       5000.0                   -0.6133488                   40.3788947                          0.0 
0:55:39.765 | PYMAB |                        78000                       5000.0                   -0.6492159                   40.3818762                          0.0 
0:55:58.458 | PYMAB |                        78500                       5000.0                   -0.6862521                   40.3861256                          0.0 
0:56:17.849 | PYMAB |                        79000                       5000.0                    -0.749257                   40.3887352                          0.0 
0:56:36.574 | PYMAB |                        79500                       5000.0                   -0.7913964                   40.3930562                          0.0 
0:56:56.233 | PYMAB |                        80000                       5000.0                   -0.8759422                    40.395548                          0.0 
0:57:14.867 | PYMAB |                        80500                       5000.0                   -0.9206834                   40.3990008                          0.0 
0:57:34.198 | PYMAB |                        81000                       5000.0                   -0.9607741                   40.4013045                          0.0 
0:57:52.734 | PYMAB |                        81500                       5000.0                   -1.0114867                   40.4043159                          0.0 
0:58:12.879 | PYMAB |                        82000                       5000.0                   -1.1073859                   40.4061459                          0.0 
0:58:31.450 | PYMAB |                        82500                       5000.0                   -1.1652183                   40.4089844                          0.0 
0:58:51.325 | PYMAB |                        83000                       5000.0                   -1.2365001                   40.4110036                          0.0 
0:59:10.321 | PYMAB |                        83500                       5000.0                   -1.2717174                    40.413742                          0.0 
0:59:29.847 | PYMAB |                        84000                       5000.0                   -1.2867781                   40.4158376                          0.0 
0:59:48.501 | PYMAB |                        84500                       5000.0                   -1.2874971                   40.4195484                          0.0 
1:00:07.907 | PYMAB |                        85000                       5000.0                   -1.3086801                   40.4218492                          0.0 
1:00:26.483 | PYMAB |                        85500                       5000.0                   -1.3327502                   40.4248594                          0.0 
1:00:46.126 | PYMAB |                        86000                       5000.0                   -1.3541808                   40.4267954                          0.0 
1:01:05.220 | PYMAB |                        86500                       5000.0                   -1.3644742                    40.430084                          0.0 
1:01:24.947 | PYMAB |                        87000                       5000.0                   -1.3950232                   40.4322643                          0.0 
1:01:43.850 | PYMAB |                        87500                       5000.0                   -1.4378048                   40.4351713                          0.0 
1:02:03.548 | PYMAB |                        88000                       5000.0                   -1.5115145                   40.4370945                          0.0 
1:02:22.171 | PYMAB |                        88500                       5000.0                   -1.5555111                   40.4399281                          0.0 
1:02:41.731 | PYMAB |                        89000                       5000.0                   -1.6257696                   40.4416253                          0.0 
1:03:00.634 | PYMAB |                        89500                       5000.0                    -1.683937                   40.4438995                          0.0 
1:03:20.465 | PYMAB |                        90000                       5000.0                   -1.7338909                   40.4457543                          0.0 
1:03:39.039 | PYMAB |                        90500                       5000.0                   -1.7617862                   40.4486238                          0.0 
1:03:58.755 | PYMAB |                        91000                       5000.0                   -1.8101264                   40.4505192                          0.0 
1:04:17.488 | PYMAB |                        91500                       5000.0                    -1.842558                   40.4532384                          0.0 
1:04:37.333 | PYMAB |                        92000                       5000.0                   -1.8712857                   40.4549517                          0.0 
1:04:56.297 | PYMAB |                        92500                       5000.0                   -1.8948759                   40.4571454                          0.0 
1:05:16.060 | PYMAB |                        93000                       5000.0                   -1.9187022                     40.45874                          0.0 
1:05:34.926 | PYMAB |                        93500                       5000.0                   -1.9372053                   40.4610693                          0.0 
1:05:54.436 | PYMAB |                        94000                       5000.0                   -1.9694775                   40.4626701                          0.0 
1:06:12.979 | PYMAB |                        94500                       5000.0                   -2.0091568                   40.4642649                          0.0 
1:06:32.630 | PYMAB |                        95000                       5000.0                    -2.076374                   40.4651783                          0.0 
1:06:51.519 | PYMAB |                        95500                       5000.0                    -2.116828                   40.4666009                          0.0 
1:07:11.319 | PYMAB |                        96000                       5000.0                   -2.1884227                   40.4674369                          0.0 
1:07:29.865 | PYMAB |                        96500                       5000.0                   -2.2190956                   40.4688767                          0.0 
1:07:49.675 | PYMAB |                        97000                       5000.0                   -2.2358861                    40.470193                          0.0 
1:08:08.422 | PYMAB |                        97500                       5000.0                    -2.249903                   40.4722155                          0.0 
1:08:28.000 | PYMAB |                        98000                       5000.0                   -2.2543487                   40.4737229                          0.0 
1:08:46.858 | PYMAB |                        98500                       5000.0                   -2.2442483                   40.4763154                          0.0 
1:09:06.903 | PYMAB |                        99000                       5000.0                   -2.2339979                   40.4781158                          0.0 
1:09:25.532 | PYMAB |                        99500                       5000.0                   -2.2313578                    40.480661                          0.0 
1:09:45.333 | PYMAB | [sUF] WARNING: f_exc spline missing; F_ref omits the excess term (only ideal gas).
1:09:45.334 | PYMAB | 
1:09:45.334 | PYMAB |        [FREE ENERGY RESULTS] 
1:09:45.334 | PYMAB |     U(q0) [0K static energy] = -374.4374193425202 eV 
1:09:45.334 | PYMAB |     F_ref = -2944.6231143274877 eV 
1:09:45.334 | PYMAB |     A(1) = 40.48204639814892 eV 
1:09:45.334 | PYMAB |     F(1) = F_ref + A(1) = -2904.1410679293385 eV   (thermal, excl. U(q0)) 
1:09:45.334 | PYMAB |     F_Helmholtz = U(q0) + F(1) = -3278.5784872718586 eV   (total absolute) 
1:09:45.334 | PYMAB |     sigma[F(1)] = 0.00011690354089021351 eV 
########## ########## ########## ########## ########## ########## ########## ##########
Execution Sum Up
########## ########## ########## ########## ########## ########## ########## ##########
Jobid     : 5125163
Jobname   : liqW
User      : marinica
Account   : desdrmp@rome
Limits    : time = 5:34:00 , memory/job = 1775 Mo
Date      : submit = 09/07/2026 15:09:39 , start = 09/07/2026 15:29:06 , end = 09/07/2026 21:03:08
Execution : partition = rome , QoS = normal , Comment = (null)
Resources : ntasks = 1664 , cpus/task = 1 , ncpus = 1664 , nodes = 13
   Nodes=irene[4125,4129,4640,4675,4768,4795,5159,5167,5549,5566,6195-6196,6204] CPU_IDs=0-255 Mem=227200 GRES=
 
Memory / step 
--------------
                          Resident Size (Mo)                     Virtual Size (Go)
JobID            Max     (Node:Task)       AveTask    Max  (Node:Task)            AveTask
-----------      ------------------------  -------    --------------------------  -------
5125163.extern       0 (            :   0)       0      0.00 (            :   0)    0.00
5125163.batch     2720 (irene4125   :   0)       5      2.00 (irene4125   :   0)    0.00

Accounting / step 
------------------

JobID           JobName                  Ntasks  Ncpus Nnodes  Layout       Elapsed               User         System     Eff  State
------------    ------------             ------  ----- ------  -------      -------               -------      ------     ---  -----
5125163         liqW                          -   1664     13        -     01:10:52   (100%)            -            -      -  -
5125163.batch   batch                         1    128      1  Unknown     01:10:52   (100%)     00:00:00     00:00:00      0  RUNNING
5125163.extern  extern                       13   1664     13  Unknown     01:10:52 (100.0%)     00:00:00     00:00:00      0  RUNNING
5125163.0       python                     1600   1600     13   BBlock     01:10:25  (99.3%)  76-18:23:03     06:32:20   98.4  COMPLETED
########## ########## ########## ########## ########## ########## ########## ##########
