LAMMPS data file via write_data, version 11 Feb 2026, timestep = 40000, units = metal

128 atoms
1 atom types

0 12.97356 xlo xhi
0 12.97356 ylo yhi
0 12.97356 zlo zhi

Masses

1 183.85

Atoms # atomic

86 1 7.891506504771595 4.262692386683173 3.988772038387981 -1 1 0
14 1 3.3972340162165446 2.3188661918265434 0.963035410271202 1 1 -1
18 1 4.101686896074178 5.931185113224223 1.5072759229221773 0 -1 0
31 1 1.5609681682610494 5.906215457954854 5.493223955105814 1 1 -2
96 1 11.093591401718765 5.004420291694382 3.6969998212060706 -1 -1 1
50 1 5.078856252499504 4.105983657041328 5.981664922696016 0 0 0
36 1 8.958100392835311 3.4557802843750483 1.6597924276061689 1 -1 0
51 1 6.424939727943769 0.13366411720692006 5.541937682900159 1 0 -1
32 1 6.709955453211245 6.102496983257171 1.7408958221458142 1 1 -1
68 1 12.342830941183394 4.710370095475615 6.312038552922875 -2 0 -1
43 1 3.7555795719671057 1.4213302264983727 6.468400782596917 1 1 -1
34 1 9.470763824954307 1.2646133780793676 0.6140438012326773 0 0 1
21 1 11.601268127773183 3.377850837014975 1.7442426335036703 0 1 0
113 1 2.7363044710231317 1.9481941506022507 3.437196197491874 0 1 0
93 1 12.710886746823084 1.4759021556402716 6.078344966054126 -1 2 0
76 1 10.50636548932113 5.705511680342214 0.6817228138875907 -1 -2 0
48 1 5.461838150092188 4.162948282299522 2.543279126182458 0 0 0
82 1 7.705658410698307 1.3227678437980286 2.6510008135126024 0 0 0
120 1 0.28472502333524113 0.5275841220126866 3.204604825772364 0 0 1
58 1 2.858956770194114 4.277412631589858 3.720106259829992 -1 1 0
30 1 5.390923912146063 0.7872285892967245 2.1113300089171902 0 1 0
7 1 6.048736428716938 2.4604614643900002 4.407741223644366 0 1 0
1 1 8.434258141079308 2.2769129521311866 5.315035620377719 -1 0 -1
119 1 6.937427778166275 6.1645209094091875 5.855491770912586 0 0 1
61 1 12.78695526548821 3.1842193406880273 4.108370522401167 0 2 -1
2 1 11.838637320807445 0.4057946930553975 1.3982726511459853 -1 0 0
40 1 10.335326765404512 1.4028653005882974 3.577465547902497 -2 0 2
116 1 0.10574431060217371 5.64947007639411 1.9749616561861671 1 1 1
88 1 0.7824750156888024 2.5150707522012548 1.6518408173510968 0 -1 1
5 1 6.929170684070929 2.631760809372624 0.024200065380090174 0 0 -1
23 1 1.6929310757302356 3.236553834262708 5.802395498088147 2 0 -1
11 1 9.74892549747408 5.2278219871252105 5.867864224405965 1 1 -1
25 1 4.80953471149198 5.843269440343096 4.290494637821021 0 -1 -1
99 1 4.033949291103746 5.155387558831898 10.429476757269683 0 -1 1
128 1 4.983231820160799 3.8654530279580612 12.839208627087418 2 1 1
59 1 6.321366732107441 2.414080200502695 10.228286060476659 -1 0 0
39 1 12.2583155080786 2.8509931909156423 12.146873480303048 -1 0 0
73 1 4.078707854542946 0.826176197738257 9.832566641635058 -2 -1 0
75 1 4.6611191266944925 0.7822692262144099 12.71078786884122 0 0 -1
52 1 1.2858943919775045 5.632183439842338 7.871761712374162 1 0 -1
125 1 8.978787076456523 6.359283886915968 8.601093252481053 0 1 0
57 1 9.81430894545728 3.7049933406010607 12.393148780030446 0 1 0
60 1 3.8735073973419203 5.696660489451293 7.733153361800343 0 1 -1
124 1 11.139785381886377 4.449832748491792 9.548563844142096 1 0 1
45 1 1.6245101660920478 0.4418504370651703 12.489723778764654 0 0 -1
35 1 1.5232854970073173 1.50768049853947 10.176919579008189 0 -1 0
46 1 7.547323032746627 0.3285897342761741 9.065142697653135 0 2 0
33 1 5.909803128686214 1.6118415200209746 7.55868501281109 0 0 0
62 1 1.3047369166275244 4.437156595692305 9.795367697559946 1 0 -1
98 1 8.427980166236093 2.8349950640569 7.498673210061882 -1 0 1
49 1 0.5492709915549479 2.775616319299717 8.032961045063958 1 1 0
87 1 9.259557027745435 0.2001615333319471 6.979942675373835 -1 -1 1
84 1 3.931674612930503 3.259701601459976 8.750148395638304 -1 0 -1
111 1 6.986964944496978 5.518742167819254 10.339267158722778 0 0 -2
90 1 8.748197762277265 3.2823677326757887 9.62259844081889 0 -1 1
105 1 7.748886089190128 5.458063704998413 12.572072066901395 -1 0 0
110 1 9.23824500924235 1.1703079500405578 11.068433290650725 0 0 1
92 1 6.23973730208143 5.267896042278562 8.116008068321609 0 1 0
108 1 12.573222589634433 5.314738029757014 11.861705741219119 -1 -1 0
64 1 11.100705361756452 2.3102453194496557 9.954044342816752 1 2 -1
19 1 11.847056111438519 0.45629852140688276 11.516367950256356 -1 0 -1
83 1 10.91217094071381 2.5027882161669397 7.174484508060388 -1 2 -1
4 1 1.7078934775048638 4.1241434484317505 12.594793877512467 0 -1 0
12 1 10.010351106747573 6.024815613729853 11.205698766268776 -1 0 -1
100 1 5.311738859120841 6.314170246935619 12.210103242493473 0 -1 0
102 1 9.517886738213045 7.842280397571809 5.249620396636259 0 -1 1
9 1 11.102270461546604 11.041234640349224 3.148451867635902 -1 -1 -1
126 1 11.500865741992035 10.942250990909944 0.6892634864890127 0 -1 1
91 1 9.1163481319781 12.137847082147383 4.121927036866842 1 -1 1
6 1 0.6942008686473835 11.837899419833798 1.5877464942591772 0 0 0
107 1 0.3541533878091458 8.795272854246164 0.7425928799286845 0 0 1
41 1 8.893524262244473 9.301151215910455 2.592291853206987 -1 -1 1
10 1 3.811552455365227 10.167707755036364 4.7329028222415905 0 0 0
20 1 2.233603189780937 6.546053863359455 3.015652861307794 0 0 -1
72 1 5.480749190344311 8.980746048457624 5.686634196751591 1 -1 0
17 1 11.488416485070381 8.181562459217897 2.015011637749042 -2 0 0
67 1 5.099009773350032 11.19395724153745 1.1270893671733886 0 0 0
29 1 7.788177890787053 10.318023548479342 5.1523019948283 1 1 0
15 1 3.391858381959088 7.94807810192806 5.663382448694577 0 0 -1
38 1 10.097732446058073 8.651004684372495 0.12555691619405915 0 -1 -1
74 1 4.337794007172363 12.941351021436416 4.334685959918924 -2 0 0
8 1 7.088420065594019 7.9461407916993645 3.9067609100307976 1 -1 -1
70 1 4.909491056081869 8.850121149237678 2.6931107270944077 0 0 1
44 1 7.786381016061156 10.18538333499536 0.07620646156024824 -1 -1 1
24 1 2.6584988024757132 9.778196215748483 2.192919518179851 0 0 -1
26 1 9.378321508650497 11.950727756286144 1.5337941124886756 0 0 0
56 1 1.698874209161339 6.568438858570622 0.048198231582944694 1 1 1
22 1 10.194260293423847 10.305693823957014 5.7139569948951685 0 0 -1
112 1 6.494003245594808 10.983610182586006 3.367946617072988 -1 -1 0
77 1 3.0350907055599188 12.638662720785161 1.814731537939297 0 0 1
65 1 1.8883220774715608 11.70566472578882 4.137454702791693 1 0 -1
109 1 0.9808152110561426 8.923458459245287 3.548944428566182 0 0 1
69 1 6.57946836002236 12.564469861335185 0.4488574559128295 -1 -1 1
122 1 12.301137574529417 6.990634264283449 4.298396648628853 -2 0 1
106 1 0.47089407246384646 10.671777427311056 5.830693706630277 1 -1 0
47 1 8.966492202148613 6.495119883247157 2.8710527937311556 0 0 1
97 1 11.255453393428699 12.832854763243676 5.185543291348 -1 -2 0
16 1 7.833778546363201 7.837447903458383 0.25604495313168574 0 -1 1
28 1 12.037891242955759 10.19122981542043 8.188842492208693 1 0 -1
103 1 10.158163928009836 12.074641315001054 9.241137659866942 1 -2 1
71 1 4.856619420476406 7.568021153803699 10.10973437326034 2 -1 0
81 1 3.3504013084957256 9.82822469306447 10.07911678999129 0 1 1
115 1 9.667221167775244 11.816839231209972 12.012325809791573 0 -1 -1
89 1 7.1038383080939544 7.791841663886016 7.8707700872344315 -1 0 0
37 1 5.2250464082235455 11.924154836388587 8.117486367298111 -1 -1 0
104 1 9.148197919826487 9.211800702573438 7.5373139747740225 0 0 2
53 1 1.6691753920510979 7.023044488038333 10.349143190244744 1 0 0
123 1 4.922547426555498 9.38321688515231 8.050771751377841 0 0 -1
42 1 1.470735183214993 10.574158722162629 12.29936246700764 -1 -1 -1
13 1 11.823869897878822 10.948165769456494 11.058544015539026 -1 -1 -2
80 1 10.090006079940064 9.467546296113397 10.616654128088815 1 1 0
3 1 2.7619652362249467 8.143492766869223 8.278553826733836 -1 -1 -1
121 1 10.907466444323367 7.451118735710018 7.308361575895809 0 0 1
117 1 6.625966811271317 9.848394916438798 9.484283537402156 1 0 0
63 1 12.000880666619334 7.864317868776136 11.500788380992198 1 2 -1
118 1 2.0622719331789554 12.829145496174707 7.216135912397549 -1 1 0
79 1 0.5628150920273267 8.337880729265972 6.8974107859210605 0 -1 0
54 1 5.839831603725061 9.182477822899578 12.4431997554687 0 -1 0
95 1 12.55936441531366 6.5897490928802664 9.08592903840861 -1 0 -1
85 1 0.7281585224671828 9.643627348989803 9.822484135898973 0 0 0
94 1 2.6083168601499667 10.39279231214053 7.338078681917035 0 0 0
66 1 3.601463163206136 11.574516477049063 11.98816384708233 -1 -1 1
127 1 5.358845669539058 11.791850290151459 10.506169257544988 0 0 0
78 1 1.9830171130230083 11.935378724543794 9.631829554954516 0 0 0
55 1 7.881739029457989 11.315356948637252 7.562720015935936 0 -1 0
101 1 7.961847273656607 8.01903638727112 10.613812924787965 1 -2 -1
114 1 3.4536828333966536 8.13403508225939 12.366977183783005 0 -1 0
27 1 12.58042002913803 12.862856340293483 8.063468213569983 0 0 -1

Velocities

86 -0.90240124382379 2.8909564642748147 6.073627545030524
14 5.200930995207111 0.8997452713453179 -1.7041857710681887
18 -5.582831034551308 -3.7318477350250667 9.453208310118304
31 -1.1174661774857357 4.557593639628637 -2.530050265368732
96 3.461793209853792 -8.848608971622253 1.6097254053174226
50 -0.36504628693207775 8.885092285061472 6.301468332123251
36 -4.263297734182036 3.2149003887302388 -1.4931811486794495
51 -0.02351292441240875 3.5571659608737205 -0.6061890142485801
32 10.395795144027904 10.8798123164804 -1.7549595828713163
68 1.5474970613270715 -2.5022372192110933 -0.8641663603407642
43 2.0899421399182163 -9.653884894574892 3.3468685795057893
34 3.8167112506577925 4.563978437678971 -5.9412834230288185
21 3.2009126045208287 -0.9547376303594697 10.92423960659719
113 -3.181004875311986 -5.090670963447534 0.054132231614424355
93 -1.262268792200415 -1.8466122528034368 0.17299817474208196
76 3.2177955985611315 -7.954915988533857 -3.0244690275042627
48 -7.080898758879382 -1.7682224002484845 3.891289531764975
82 5.065864296286991 2.954396801869317 -2.0387522266896667
120 -5.3976188447401166 -2.6974877623529694 1.966692055873989
58 -6.569865670058655 -2.2703124699793937 4.298041006579181
30 6.257208645165296 -0.5741684283645915 -1.8762662635123095
7 -4.0877907172199635 -1.6889584133421014 -2.216283503635073
1 2.713794884273749 -8.55442898159503 -4.269092323130679
119 3.746130834603984 -4.936770663982175 5.987387500455901
61 0.9484115343947962 -6.026625728209531 6.100811457054734
2 -3.2169575375173864 -3.9801819542215338 1.4239703601200266
40 3.103953173503128 3.25301706478347 -2.890314044480695
116 -4.753145023515481 2.3665427427223276 -3.1658924632624634
88 -1.1936840675263576 -1.6932798738759283 2.000624066380424
5 8.211124808439234 -1.1410283788895599 0.01765979154841646
23 -7.39760172168523 1.09082710847688 -4.133035065792942
11 -5.207099245839453 1.4221332673313833 6.099307705651702
25 1.2251687627378856 -6.290553922608199 -4.484932321978593
99 0.15982335240809092 -0.5302995453904851 0.13460752949273452
128 0.029843622555182355 -1.6300451331407224 2.3945292980330817
59 -2.4044160834456485 4.521936293019196 2.742994588817228
39 -3.030593981373363 2.8776181997366295 2.403052020698025
73 4.824590149080301 4.271044605418005 -5.770434281432714
75 2.7627577259184486 -1.7306911183645044 4.3600789717782416
52 7.301546393571618 3.572396938210924 -5.888387327006884
125 -0.06634340712578465 6.317206106941879 -7.667030982175436
57 1.1517492650697876 2.432632394920809 -0.22191981050240556
60 0.6748763616473968 -7.263072066547057 3.416084200618189
124 0.4543391369977741 -5.781170778715617 -4.630881064138199
45 -5.2142235114865905 -2.6336131123796322 -1.2007630589039913
35 3.8706115202471882 -1.8813268066600615 -0.9787065781858877
46 -3.891360407836958 -2.0647349484721476 -5.535799180295449
33 7.278090720444224 2.236953038949673 -12.521972467387558
62 -1.8163702405546875 1.2226318923645605 -2.1679675837595536
98 -3.096578121138041 3.005278450503655 -0.537090921864407
49 3.1832969911396685 -0.7795075478035863 -1.0350195660257537
87 -3.04783045044104 0.3029597785462047 -1.6236711227904226
84 4.17490764036592 -3.6302109146336567 3.5599099399968193
111 -1.2068418825949898 -6.383577696010575 -1.304795439605477
90 -1.8194109989005671 -8.972274243322186 2.3103148921938685
105 6.762081934173516 4.312512718926349 2.6844539700513383
110 -2.3022187288759555 7.861681433937371 -3.4265323350395764
92 0.95984004456049 -5.767407776944226 4.900194531754602
108 -2.064355007700454 0.4641492844365569 3.9273445017856106
64 -2.5770361319662727 -3.3882509098891 4.663732777122291
19 -2.25770775048789 6.78668498541518 3.1510556568627233
83 -1.458188121340523 9.023388243783467 12.250141803748146
4 3.204113945630385 2.6344736139650373 -0.5734809041115486
12 -5.841186147101321 -6.181453066243695 -6.5271049677832265
100 -3.2554542811020446 2.1685014315538007 7.161734102510039
102 -4.124323417089666 -4.522690448579721 7.359209573275514
9 -0.4956264932561177 -7.123020163164847 -7.053339912805394
126 4.32076822588979 2.2856742013724696 0.7889690858071645
91 4.672405394274832 7.0005267020521 -3.564742604247733
6 4.091809989334807 11.342626083503593 -0.9121714390985148
107 4.07885898734532 5.148232819343052 -1.9961914583628657
41 -6.100755416661416 -0.8695103305300219 1.886776567837498
10 1.4001047032482148 1.688626389300768 1.5820451559103925
20 -5.6796811613166245 2.6657770311877513 -2.688926339003473
72 -4.800125875033595 0.39119709244658335 -4.017802518284597
17 5.583196689170592 0.19738633710194137 -8.091501394290312
67 -1.7938815386897702 1.9804263217073295 4.079686931311769
29 -2.442571057517903 -3.2672251420300134 1.9235997935037739
15 9.333080724545308 2.097230821359756 -6.502746740540343
38 -3.2879194185340888 1.917734418447028 -5.109016468943889
74 1.2426047483287332 4.072752418059573 -2.352479689840389
8 -9.293155943528856 -4.85135867859587 2.401557732882548
70 -2.6274641622908383 -1.3869166204641585 -7.5979036836542
44 -1.0797702499995734 -2.4543634114139508 4.614474823804278
24 -2.3740082829521163 4.015655949300288 1.071769949351358
26 -2.5813524096209317 2.904913283692256 2.851818590404002
56 -5.351647666964698 -0.5491032176544545 0.7786340614745978
22 -5.081141328736051 -1.870733646611939 7.958989317448409
112 -1.2233562416380497 -3.5503620930111097 0.731706481234171
77 0.15597972851876918 -0.3049807854472275 -4.44958285896363
65 6.540407182343767 -0.4263809849112758 -3.4120301216924136
109 0.5772714251209792 -2.4920807970085352 -4.944183574354188
69 -5.368796873248212 -1.2216721038572371 -6.797981462490465
122 5.479161116168836 6.884574396085134 -5.178766134984563
106 -4.542760138514517 -1.4113499914242598 -0.622658383228696
47 -5.168887041105469 -5.65419860253523 9.803657150351633
97 -4.502291092704381 9.751934647935837 10.713174971867282
16 9.767943549166914 -7.118073209492746 6.719218405650001
28 -2.7456116450225543 -6.217499969013107 -9.063198568329149
103 -0.9558794563810392 0.7911155572088039 0.37467170235054975
71 -3.4451893731730583 7.850496131238356 -1.304233567131525
81 -6.960176223133213 12.016696822861467 10.112327097700263
115 7.740028625226627 4.933848564550582 -3.4721654113234304
89 -2.4684015937781347 0.6031339049562318 3.50354384613199
37 5.968421350983233 -3.8260525373504626 -11.166380067370719
104 -3.19006549472764 7.8739995163286025 -0.5683297325264084
53 7.6106428296958555 9.817552108888838 -0.9491314263977446
123 0.34208643578857806 -8.810493312290776 -5.0902626284580945
42 -7.838694075557709 9.507525708207316 3.2762604533795843
13 -5.366555118515867 -1.432790416151369 6.633365272756437
80 -5.886317605857314 2.972863208407999 1.3584885838231087
3 4.112277466895608 -1.8892482542995195 6.349877582056725
121 0.3441516801206588 0.9825098790942164 3.3499115529043784
117 -1.1025911246060616 -2.3159563306623605 -13.643153310738047
63 2.6296069383723766 1.0355606657889427 4.1503104818058745
118 3.076489567197576 6.139829854105791 -3.750369364476552
79 0.6490819623022064 -1.2227718301796888 0.646893083622798
54 -0.6814574494892898 -5.169776069146718 -2.739014276973856
95 2.778965314169541 -1.393033332663602 -5.484139555385356
85 0.03781244125919792 -2.878299733814293 0.4655368133839833
94 5.594580769033244 5.817926209781045 -4.374579263209077
66 2.2586777518869536 4.283415238233681 -2.1466024329719087
127 -1.9154538736594835 -6.351495513310262 6.446380447399777
78 7.356321925627423 2.242967011919463 0.2715153249108505
55 1.1525403911939438 -7.011209009036576 4.299400609774998
101 8.306209575449989 -0.15561110436719924 5.230451164817337
114 -2.4587729418023767 -9.168017829186235 -6.716645075534724
27 1.690296458512334 -8.023474688384727 -1.1516631926601903
