LAMMPS data file via write_data, version 22 Jul 2025, timestep = 10000, units = metal

128 atoms
1 atom types

0 12.742537224023346 xlo xhi
0 12.742537224023346 ylo yhi
0 12.742537224023346 zlo zhi

Masses

1 183.84

Atoms # atomic

2 1 1.4766040185260267 1.4834519283732202 1.9467919384055237 0 0 0
43 1 3.2732405018206414 3.1306973320805396 3.207457377201467 0 0 0
35 1 3.265065633601132 12.718462135742284 3.146681487379217 0 -1 0
4 1 4.985283272187838 1.504096514222846 1.507839296949917 0 0 0
6 1 7.907665812073002 1.4902581652739206 1.2523535873374183 0 0 0
45 1 6.217484361169019 3.302999378779758 3.4711530051682447 0 0 0
13 1 6.455421026585621 3.321449403843027 0.13730255621917425 0 0 0
37 1 6.71666435447181 12.626507066401304 3.316227508717669 0 -1 0
5 1 6.173039520430779 12.399297468942276 12.697800868371322 0 -1 -1
41 1 12.730294630665972 3.045953282729932 3.18639265444164 -1 0 0
8 1 11.172634594660968 1.7266070412032692 1.2601165604749451 0 0 0
47 1 9.399044621426118 3.0942767121926344 2.9111978686192743 0 0 0
33 1 0.052632651766341354 0.24343121255940225 3.523829849962488 0 0 0
9 1 12.653574002917862 3.4599132829539867 12.469137602944443 -1 0 -1
10 1 1.2933378814915901 4.709608588066689 1.5091112136132 0 0 0
18 1 1.4444204705527084 7.937652623440568 1.7678382391195016 0 0 0
51 1 2.9457527229511036 6.220867065344047 3.1263213899033544 0 0 0
12 1 4.784773715851404 4.5651952198976415 1.7634800825453565 0 0 0
14 1 7.984265069834967 4.719954210859783 1.6035457506103026 0 0 0
20 1 4.635003827687146 7.90684680426376 1.5148415734419662 0 0 0
22 1 7.824224034202218 8.373789578107173 1.7806519879453577 0 0 0
53 1 5.964343056007849 6.370114656092147 3.09258624561927 0 0 0
21 1 6.503617836634664 6.565289897541377 12.601750585446608 0 0 -1
49 1 12.484092930139852 6.135967158609726 3.3465846932417267 -1 0 0
16 1 11.096356153519832 5.020720289230939 1.3867376557942712 0 0 0
24 1 11.16660070286792 7.999328608909896 1.4103197261441796 0 0 0
55 1 9.39368565745673 6.678256785889448 3.075538398699417 0 0 0
26 1 1.964137453503061 11.303490683300565 1.5827325538017467 0 0 0
59 1 3.078373824963358 9.648303306305001 3.4483446087042773 0 0 0
57 1 0.16750668160044668 9.707417710091182 3.270998897291676 0 0 0
3 1 2.982764961575976 12.64869783760963 12.544790100278458 0 -1 -1
27 1 3.0507808061557666 9.942018990083588 0.13589104362558224 0 0 0
28 1 4.92915892185127 11.180830543353457 1.693932076405125 0 0 0
30 1 8.110990533506186 11.077763880937116 1.6455448404596442 0 0 0
61 1 6.081333764216041 9.614697086929393 3.2009096043963607 0 0 0
39 1 9.342345541461611 0.14805760264460233 3.1984708860527955 0 0 0
25 1 0.005307168982143915 9.850551068108802 0.0455647629905919 0 0 0
32 1 11.094733443096294 11.141834150006726 1.9702787154435133 0 0 0
63 1 9.536818553092768 9.441927016017939 3.3790514167976284 0 0 0
1 1 0.050102619948578564 12.460093580545996 0.26349851594677354 0 -1 0
34 1 1.6571473718973595 1.867322924033177 5.231015590006175 0 0 0
66 1 1.6366843251800032 1.5528944908654112 7.858731835434663 0 0 0
75 1 3.1557972014893174 3.2427228197695173 6.696088558304072 0 0 0
67 1 3.136894920254396 12.50569203602777 6.618749701382494 0 -1 0
73 1 12.623885933410138 3.457180142733951 6.394470230356743 -1 0 0
36 1 4.555821859550802 1.2800753979301156 4.722460040211385 0 0 0
38 1 7.921551243312036 1.6638759930805236 4.938328381494466 0 0 0
68 1 4.767512909912799 1.7879327016639324 8.0688696463575 0 0 0
70 1 8.253148082624218 1.5694950353161012 8.06355067381954 0 0 0
77 1 6.348616323444606 3.09776382841563 6.323282455024497 0 0 0
40 1 11.016460573847388 1.619978934054178 4.644019980473094 0 0 0
72 1 11.020320972434668 1.5708989743862891 7.7762254799793515 0 0 0
79 1 9.404055080273578 3.3570561088841817 6.29858018267737 0 0 0
65 1 12.565659913530705 0.06703246602674717 6.264621924322619 -1 0 0
42 1 1.6094240593223215 4.671217053842199 4.827254120440566 0 0 0
50 1 1.6945988623502477 7.844332913339579 4.973382573953281 0 0 0
74 1 1.4140386182236149 4.678833930456338 7.975033050551108 0 0 0
82 1 2.0272484430100723 7.808529633222902 8.231047997690867 0 0 0
83 1 3.2117523244624366 6.031406288389812 6.2758153562399075 0 0 0
81 1 0.1399111721743651 6.349527471426928 6.371107866552604 0 0 0
44 1 4.689934982599225 4.916911042764909 4.6899867886821776 0 0 0
46 1 8.043980335418798 4.997928956289717 4.676950411822863 0 0 0
52 1 4.4528553685124885 8.019000386808203 4.811791981774658 0 0 0
54 1 7.685776703298707 7.905153848511335 4.683042979002774 0 0 0
76 1 4.952208659718024 4.617174554155094 8.23425368212509 0 0 0
78 1 8.087407951704131 4.829998191750709 8.086667782346039 0 0 0
84 1 4.948369504481258 7.712207977391455 7.923741451531368 0 0 0
85 1 6.104059543707438 6.373290517865137 5.937838731410171 0 0 0
86 1 8.215251443314132 7.797086397861656 7.584858740855149 0 0 0
48 1 10.983626643755969 4.885718647308141 4.6726283948138825 0 0 0
56 1 11.349448919534993 8.058929687039415 4.593595161332526 0 0 0
80 1 10.856461997439846 4.848480531480039 7.9219170449966265 0 0 0
87 1 9.848379745635862 6.424868341669208 6.218899914406087 0 0 0
88 1 11.445612501311555 7.8972043554452815 7.763165618045911 0 0 0
58 1 1.6574775404242692 11.424855386296171 4.8320243753433605 0 0 0
90 1 1.6677503328941672 10.986993123398047 8.17737429038999 0 0 0
91 1 3.3678355983463235 9.476935228352449 6.580695833943493 0 0 0
89 1 0.35511681506176807 9.627299341828703 6.305545354434382 0 0 0
69 1 6.360355138337848 0.2884424899022129 6.216180708647226 0 0 0
60 1 4.87000455335032 11.244741444455288 4.629172799361314 0 0 0
62 1 7.793246503571879 10.842668026445189 4.925655224501872 0 0 0
92 1 5.01764294902022 11.178540996910957 8.09495986872925 0 0 0
93 1 6.273903370274744 9.408300278700432 6.209689872356431 0 0 0
94 1 7.925287386197487 11.154583891467453 7.9626156857433905 0 0 0
71 1 9.56489152752139 12.718998642883255 6.1724419420044985 0 -1 0
64 1 11.244632227762663 11.173150870130232 4.74724951346381 0 0 0
95 1 9.524052634983406 9.534358740808736 6.024405342128841 0 0 0
96 1 10.983664953720805 11.183130740416791 7.70144706857652 0 0 0
11 1 2.7279031126432027 3.25576818304364 0.18575309624586822 0 0 0
98 1 1.5240174858200617 1.640503481057007 11.20380882978456 0 0 0
107 1 3.244738654780468 3.068173578724471 9.752068578871297 0 0 0
99 1 3.3134838800551942 0.07557853846150868 9.573739343669804 0 0 0
100 1 4.957544736198687 1.6578839328246064 11.34367551887905 0 0 0
102 1 8.034877959062978 1.5221091210112176 11.220335764473075 0 0 0
109 1 6.407070600747358 3.1004559406704533 9.499857523274095 0 0 0
101 1 6.590509118109499 0.10508633110170607 9.69873543236125 0 0 0
15 1 9.68638250865916 3.061730933359174 0.09404590779511333 0 0 0
105 1 12.471555505984421 3.1260206505929795 9.487551800933137 -1 0 0
104 1 11.223587243112894 1.4516876899186248 11.272065736090543 0 0 0
111 1 9.499486096187965 3.4090636595495214 9.444834547794347 0 0 0
103 1 9.733205426892823 12.733710214335561 9.476250362453296 0 -1 0
19 1 3.010039574566731 6.2017859732980005 0.10393708887248643 0 0 0
106 1 1.5459714279044963 4.656840103726417 10.962269021542374 0 0 0
114 1 1.969007013254005 8.131781048362905 11.161919495793938 0 0 0
115 1 3.372751115656783 6.306084175461776 9.71475403375078 0 0 0
113 1 0.19850148433332748 6.566255632842036 9.508107203370564 0 0 0
108 1 4.9969982514853335 4.970270450240639 11.21155141140731 0 0 0
110 1 7.8683247361307105 4.828236293488529 11.230487193081244 0 0 0
116 1 4.792726456067878 7.592916947812464 11.272080882046883 0 0 0
117 1 6.2221478796077925 6.224110367944716 9.579895147518153 0 0 0
118 1 7.9019415794571035 8.130584019997114 11.220953664803103 0 0 0
17 1 12.674780776583448 6.633117283401774 12.614802465009445 -1 0 -1
23 1 9.402997865254607 6.339031766517227 12.701015125741701 0 0 -1
112 1 11.235849479102047 5.012426106918745 11.322975800709557 0 0 0
119 1 9.522555770233605 6.534475652393256 9.41070091772476 0 0 0
120 1 10.960540341956534 8.017154994491593 10.979335285132935 0 0 0
122 1 1.755724469747123 11.287414646462073 11.016518247921155 0 0 0
123 1 3.352822368069358 9.44764272721116 9.546634959669856 0 0 0
121 1 0.31198484548225447 9.44935122089323 9.676441834967067 0 0 0
29 1 6.15002393724795 9.43467246219548 0.0038926333091140464 0 0 0
124 1 4.842356909160557 10.99088947648248 11.342838073093972 0 0 0
125 1 6.466668648343261 9.657783662092095 9.17021125455528 0 0 0
126 1 8.037264622207081 10.693645391559642 11.025354835243942 0 0 0
31 1 9.582270140432529 9.642631705877589 0.1301915304975001 0 0 0
7 1 9.733402569378882 12.559308704289318 12.730054132628949 0 -1 -1
97 1 12.646638439628186 0.05213499307120806 9.44262752421912 -1 0 0
127 1 9.625303891069604 9.246416246272906 9.288239878323722 0 0 0
128 1 11.105182058819565 10.982787603877464 10.834303095354421 0 0 0

Velocities

2 -2.7635275207624486 7.629923908004169 -1.2235671369963121
43 3.3328127468460993 3.680769009009944 -4.147074748243863
35 0.02177444398228534 0.926666117616593 -2.2583976531331325
4 2.8367613967329484 -3.952173577862112 0.2716030274734056
6 6.291966893104391 -0.25354157093605345 -1.880603767178333
45 2.346885880763036 4.617838565911325 4.619196990813386
13 0.5263979601931726 8.430241126443446 9.256166006264003
37 0.5853091998255345 7.5766433435532665 1.0310518191497722
5 7.414048969347407 -0.6804306244707004 10.248853019184237
41 1.9623469001912555 -2.045708507258078 1.6361884638886801
8 -3.1388773323714476 -2.465980260523654 -0.46894588503472234
47 -7.204804613021117 -6.198495310903555 -6.8776011050002115
33 5.770007608250257 -2.322519280460774 -3.7946109164184394
9 -1.6275348510375005 6.5467355488722125 -4.738962800990248
10 -10.700968391182544 -2.6359872948824723 3.3587517204596997
18 0.3150522059110863 -5.027939348397 1.3319856647695871
51 -3.8970835180327175 2.37925190769735 3.0086776916551874
12 -1.0554944388666627 -3.8739712228534815 -1.4488154848813342
14 6.371524062340193 1.7872445038370486 1.2571217206449368
20 -4.229734482493088 2.1164836791283252 4.465692493988697
22 -6.6836674215697 2.3468734007752756 2.1474664249068893
53 1.0093803901776874 4.156196871802504 -2.869893782107212
21 -1.4087920258409066 -2.8278520182091715 -3.0316572199386633
49 0.3324817784342298 5.801473500233412 -4.544185004701441
16 6.225399253436011 1.1553296438738891 -4.996885883360087
24 1.2439044588003427 -0.8435589751119317 1.550725321483596
55 -1.4494957296924802 3.914265403276629 1.2087416901327912
26 -6.6166694772831045 -0.6136713512444572 -5.947759976674445
59 3.2196647598194246 -6.674356822887729 -1.5499355184957786
57 -0.07768389557614672 -1.1607505614451459 3.861369590241134
3 -0.7334845979170036 -3.764634484645963 -4.755299829803947
27 6.7135683473893515 -8.152005897108126 -2.3957512192368102
28 6.812342042723038 9.091435818089776 3.076214435126845
30 -1.5525670754190621 6.229042894807186 0.1516832537922846
61 1.8528307545362035 2.4575173820818446 4.562464638404805
39 1.9923203740858064 -2.343584489781508 -3.455718444163707
25 -5.019127645637685 2.822640256170403 -5.320308193307069
32 3.551948938513519 2.402079840166547 1.2618745787409278
63 -2.047786728636852 -4.93316603448614 -4.466793387415617
1 -0.8455795565510166 0.9964711418055658 -6.698276973234563
34 1.7390850292493625 -1.0393101733237446 0.8736968965700773
66 5.138614147518192 -5.608518210403493 1.2851543983806781
75 4.6158306794965664 9.756915112058955 -2.4912012524494798
67 0.39886119303687173 2.0733961314768456 0.19767958608996983
73 -0.8546221162648627 0.9807642783250776 -0.9447540748893865
36 4.059547400316031 -1.4491658478730949 -3.0543352035987854
38 -2.5488360139265303 0.8114658079485122 -1.2420092644427927
68 -0.6075355615847652 -3.404645931659442 2.5033165435215006
70 1.635067865953987 1.9987104455337334 -5.176480733018992
77 -2.8305560317916507 -2.0636873846186043 -5.386750448413681
40 6.097885264143856 0.6844314716722952 -4.561530372683945
72 -7.483831804478423 -2.85331613418173 2.0388965166195754
79 -2.544106096898183 2.427001482372546 -1.1542759915455092
65 7.297496531843558 3.357656882989514 -7.049995431512025
42 -1.2304181517123012 5.57072514934986 4.538962659715591
50 -3.4088144706333137 -1.669801328684782 -2.664902786541018
74 5.817263043433769 -1.3152007076451202 0.5250531947607627
82 4.832103821084097 -3.9135358159540967 0.43189546793089295
83 0.30309970006490117 3.708853394388072 3.39310621526855
81 0.8195926192082258 -0.2371065616445854 -4.325826850708947
44 -1.4021159215993708 -5.0170987369609765 -1.0001742809877714
46 -6.018749557763745 -2.7247986259417796 9.143191697544411
52 0.5102705047449665 0.6943143931202926 -0.007929697095266789
54 2.3207015055820155 -4.946798740517717 3.822483692562283
76 -3.4392199971946167 -6.855211555664287 0.9359262967093911
78 2.0473194713567007 -4.662623369982963 5.169352859092778
84 0.03333675522370304 3.960294356951681 -5.653292609249353
85 4.218826051721917 2.248656965946029 0.19695081573158302
86 2.3767155606503665 -4.434943373953473 2.4405037004577457
48 9.152625983101531 3.855403878199129 4.800651024399541
56 -1.4018324555322974 0.7806438808672193 -3.8259944226394236
80 -1.4523050639272128 -4.037755999406079 3.432732164721547
87 3.076807358238414 -8.254504579609604 -4.789302077539841
88 0.9534939459331837 -0.9270195158744841 -1.4519485512269346
58 5.602927568363117 -3.3292703922713534 2.9367928990714196
90 -1.6242817105272966 5.485139264150191 -5.334406147483606
91 0.5027320291535295 2.6111954710782883 -2.4799594287599414
89 -0.6923349193029525 1.3509813488499152 3.8506668995401654
69 -0.07785957508189932 -1.2026882338924687 3.4405800771736517
60 -1.0949749834877647 -2.438445861190209 2.51488350050723
62 -0.6394469212734996 -0.5013377306003804 -0.4820002546260102
92 1.8794750435846956 -3.6264403893094292 1.6524260406496327
93 5.472201173996554 1.1649832734596854 4.393441491504831
94 -1.8797179248207239 0.18172382618568544 1.2582953597783615
71 -4.561903970838043 -0.4705518705710861 4.827834085385472
64 -4.455223479596546 1.0202882372340656 1.0677388980269191
95 -1.7796924028433387 3.196532783477493 -1.5124551985372243
96 -0.1202682002333131 2.869312461294527 -7.065119913535961
11 -0.6233934725856126 1.764773651228434 3.4032757185842146
98 -7.4699852520031955 3.0522215732054385 -4.264454211653563
107 -3.977868444047948 -11.276365008652009 -0.6296735741984154
99 -2.447143548654869 -1.1344164280756872 -1.5395872816539244
100 -4.306769982394151 -0.5718569073879337 1.812544063633856
102 0.9544924936162708 -3.74678498961258 -3.748959074223913
109 8.573944256718473 6.980162402288022 -11.243051994352705
101 -2.367482690573986 -1.7573111747666041 2.1687873911616005
15 1.6618357216583795 0.8273618508675837 2.448760463403256
105 1.5978775702763535 2.204566641661916 2.286905004574475
104 4.051577285543176 -5.2934081417030345 3.1510306145505385
111 -7.786640086260465 2.0888508667412244 4.912376996319677
103 -0.6947705262018106 -3.5396789907646156 2.3068312287090373
19 1.6480073217528508 -2.339400006883623 -5.040353521029645
106 1.4539417395487704 -5.412077765704219 -1.706136608151051
114 3.472854257533835 1.630928598867992 -1.1431556170532131
115 -0.3949633670288318 -4.356481495967906 7.435143250796323
113 1.2821896740431102 -0.5992169568038184 -3.733280592815695
108 0.5328834620459147 8.881849582369897 -2.7375444249109133
110 -5.539891461475805 3.64612651490509 -3.69398334046335
116 1.831679441050316 0.5147218193425298 2.1744554405942265
117 -12.087761588081758 -3.2854510203704788 4.315059867150058
118 1.228131744743767 4.263924193877529 -2.39139420509743
17 2.6855286836597676 4.645208249331588 5.614738799363231
23 3.312206280515079 -1.4326457776227275 0.3181371818985688
112 1.135595970797483 0.9207247660753994 -0.042159475596281706
119 -3.341465372221058 -0.9520151793648267 -0.4050461572878087
120 -6.226687916120781 -7.244212325180393 1.6061066491862404
122 -7.74885239792028 -4.678736169862235 6.87285853074644
123 4.466488640946018 5.623645473331831 5.927361665570574
121 -10.394025583129862 0.5281971811599525 3.732722688844216
29 1.0523458270092578 2.7131540195065442 -1.3705725584745692
124 -0.47156371968604927 4.742135456569015 -0.9427528564134022
125 -6.040354986292857 -5.584231610993333 -2.0829100897539807
126 2.2091698763136636 -0.02454380060036808 -3.209309341012291
31 -3.0337041612061704 -2.544826256595444 5.046791955225969
7 1.5451459707188302 0.8847778440703091 1.8650528930885832
97 3.9484081302608236 -1.0149320700924513 1.8207160267003706
127 -2.403408813186937 -1.2367293142654427 -0.8053395386596743
128 0.28334604112100237 2.0115812509864455 0.05765642166641201
